 Q-Chem 5.3, Q-Chem, Inc., Pleasanton, CA (2020)
 Q-Chem 5.3.0 for Intel X86 EM64T Linux

User input:
--------------------------------------------------------------
$molecule
0 1
H       0.000000    -0.115747     1.133769
H       0.000000     1.109931    -0.113383
O       0.000000     0.005817    -0.020386
$end

$rem
JOBTYPE              sp
EXCHANGE             b3lyp
BASIS                6-31G
CIS_N_ROOTS          4
CIS_CONVERGENCE      8
CORRELATION          none
MAX_SCF_CYCLES       600
MAX_CIS_CYCLES       50
SCF_ALGORITHM        diis
MEM_STATIC           300
MEM_TOTAL            2000
SYMMETRY             false
SYM_IGNORE           true
UNRESTRICTED         false
CIS_SINGLETS         true
CIS_TRIPLETS         true
CALC_SOC             true
SET_ITER             300
STS_MOM              true
$end
--------------------------------------------------------------

             Standard Nuclear Orientation (Angstroms)
    I     Atom           X                Y                Z
 ----------------------------------------------------------------
    1      H       0.0000000000    -0.1157470000     1.1337690000
    2      H       0.0000000000     1.1099310000    -0.1133830000
    3      O       0.0000000000     0.0058170000    -0.0203860000
 ----------------------------------------------------------------

   10     -76.3570357641      2.13e-09  Convergence criterion met
 Total energy in the final basis set =      -76.3570357641

         TDDFT/TDA Excitation Energies
 ---------------------------------------------------

 Excited state   1: excitation energy (eV) =    5.1669
 Total energy for state  1:                   -76.16715634 au
    Multiplicity: Triplet
    Trans. Mom.:  0.0000 X   0.0000 Y   0.0000 Z
    Strength   :     0.0000000000
    D(    5) --> V(    1) amplitude =  0.9982

 Excited state   2: excitation energy (eV) =    6.0765
 Total energy for state  2:                   -76.13372898 au
    Multiplicity: Singlet
    Trans. Mom.:  0.1591 X   0.0000 Y  -0.0000 Z
    Strength   :     0.0037677982
    D(    5) --> V(    1) amplitude =  0.9992

 Excited state   3: excitation energy (eV) =    6.9584
 Total energy for state  3:                   -76.10131974 au
    Multiplicity: Triplet
    Trans. Mom.:  0.0000 X   0.0000 Y   0.0000 Z
    Strength   :     0.0000000000
    D(    4) --> V(    1) amplitude =  0.9834

 Excited state   4: excitation energy (eV) =    7.0964
 Total energy for state  4:                   -76.09624682 au
    Multiplicity: Triplet
    Trans. Mom.:  0.0000 X   0.0000 Y   0.0000 Z
    Strength   :     0.0000000000
    D(    5) --> V(    2) amplitude =  0.9980

 Excited state   5: excitation energy (eV) =    7.8295
 Total energy for state  5:                   -76.06930672 au
    Multiplicity: Singlet
    Trans. Mom.: -0.0387 X   0.0000 Y  -0.0000 Z
    Strength   :     0.0002868084
    D(    5) --> V(    2) amplitude =  0.9990

 Excited state   6: excitation energy (eV) =    8.6463
 Total energy for state  6:                   -76.03928870 au
    Multiplicity: Triplet
    Trans. Mom.:  0.0000 X   0.0000 Y   0.0000 Z
    Strength   :     0.0000000000
    D(    3) --> V(    1) amplitude =  0.4719
    D(    4) --> V(    2) amplitude =  0.8726

 Excited state   7: excitation energy (eV) =    9.0470
 Total energy for state  7:                   -76.02456327 au
    Multiplicity: Singlet
    Trans. Mom.: -0.0000 X   0.4219 Y   0.5281 Z
    Strength   :     0.1012770585
    D(    3) --> V(    2) amplitude = -0.2857
    D(    4) --> V(    1) amplitude =  0.9481

 Excited state   8: excitation energy (eV) =   10.5648
 Total energy for state  8:                   -75.96878617 au
    Multiplicity: Singlet
    Trans. Mom.:  0.0000 X  -0.2156 Y   0.0714 Z
    Strength   :     0.0133563830
    D(    3) --> V(    1) amplitude = -0.5409
    D(    4) --> V(    2) amplitude =  0.8351

 ---------------------------------------------------

                    Orbital Energies (a.u.)
 --------------------------------------------------------------

 Alpha MOs
 -- Occupied --
-19.1656  -0.9566  -0.4663  -0.3622  -0.2868

          Ground-State Mulliken Net Atomic Charges

     Atom                 Charge (a.u.)
  ----------------------------------------
      1 H                     0.320542
      2 H                     0.333856
      3 O                    -0.654398
  ----------------------------------------
  Sum of atomic charges =     0.000000

                    Cartesian Multipole Moments
 -----------------------------------------------------------------
    Charge (ESU x 10^10)
                 0.0000
    Dipole Moment (Debye)
         X      -0.0000      Y       1.6924      Z       1.7105
       Tot       2.4062
    Quadrupole Moments (Debye-Ang)
        XX      -7.5124     XY       0.0000     YY      -4.8939
        XZ       0.0000     YZ      -0.5611     ZZ      -4.8602

 Total job time:  1.32s(wall), 2.44s(cpu)
        *  Thank you very much for using Q-Chem.  Have a nice day.  *
