 Q-Chem 5.3, Q-Chem, Inc., Pleasanton, CA (2020)
 Q-Chem 5.3.0 for Intel X86 EM64T Linux

User input:
--------------------------------------------------------------
$molecule
0 1
Si  -0.87265746327117     -1.68165605362097      1.00214099448865
Si  -1.38689632985913      1.51928494426855     -1.42781083938555
Si  1.10102464294892     -1.64115624205526     -0.89132986874952
Si  0.01727863194516      0.27950141015049     -0.00419704293929
Si  1.27007737542804      1.75468107517742      1.33012777194896
H   -2.17617072309267      0.62941165631869     -2.31431485670415
H   -0.57057677334357      2.43150686156364     -2.27005672676384
H   -2.32396910527152      2.34346934868684     -0.62145435862709
H   2.08269234738870      2.64791967250234      0.46410926277917
H   2.17291985650532      1.02264823677273      2.25179138435135
H   0.35085675429463      2.60438661145748      2.13142774679107
O   0.14468213825330     -2.63277623169070      0.06669440736577
H   -2.29120571415959     -2.01946910353600      0.72408930703805
H   -0.60495515924903     -1.89229723844967      2.44753530217540
H   2.53742640901410     -1.81587696826979     -0.55595818356230
H   0.90499311246850     -1.95942797927581     -2.32798430020669
$end

$rem
JOBTYPE              sp
EXCHANGE             b3lyp
BASIS                def2-tzvp
CIS_N_ROOTS          4
CIS_CONVERGENCE      8
CORRELATION          none
MAX_SCF_CYCLES       600
MAX_CIS_CYCLES       50
SCF_ALGORITHM        diis_gdm
SYMMETRY             false
SYM_IGNORE           true
UNRESTRICTED         false
CIS_SINGLETS         true
CIS_TRIPLETS         true
CALC_SOC             true
SET_ITER             300
STS_MOM              true
$end
--------------------------------------------------------------

             Standard Nuclear Orientation (Angstroms)
    I     Atom           X                Y                Z
 ----------------------------------------------------------------
    1      Si     -0.8726574633    -1.6816560536     1.0021409945
    2      Si     -1.3868963299     1.5192849443    -1.4278108394
    3      Si      1.1010246429    -1.6411562421    -0.8913298687
    4      Si      0.0172786319     0.2795014102    -0.0041970429
    5      Si      1.2700773754     1.7546810752     1.3301277719
    6      H      -2.1761707231     0.6294116563    -2.3143148567
    7      H      -0.5705767733     2.4315068616    -2.2700567268
    8      H      -2.3239691053     2.3434693487    -0.6214543586
    9      H       2.0826923474     2.6479196725     0.4641092628
   10      H       2.1729198565     1.0226482368     2.2517913844
   11      H       0.3508567543     2.6043866115     2.1314277468
   12      O       0.1446821383    -2.6327762317     0.0666944074
   13      H      -2.2912057142    -2.0194691035     0.7240893070
   14      H      -0.6049551592    -1.8922972384     2.4475353022
   15      H       2.5374264090    -1.8158769683    -0.5559581836
   16      H       0.9049931125    -1.9594279793    -2.3279843002
 ----------------------------------------------------------------

   19   -1528.9541719239      5.60e-09  Convergence criterion met
 Total energy in the final basis set =    -1528.9541719239

         TDDFT/TDA Excitation Energies
 ---------------------------------------------------

 Excited state   1: excitation energy (eV) =    4.5927
 Total energy for state  1:                 -1528.78539342 au
    Multiplicity: Triplet
    Trans. Mom.:  0.0000 X   0.0000 Y   0.0000 Z
    Strength   :     0.0000000000
    D(   44) --> V(    1) amplitude =  0.9882

 Excited state   2: excitation energy (eV) =    4.7611
 Total energy for state  2:                 -1528.77920372 au
    Multiplicity: Triplet
    Trans. Mom.:  0.0000 X   0.0000 Y   0.0000 Z
    Strength   :     0.0000000000
    D(   44) --> V(    3) amplitude =  0.9764

 Excited state   3: excitation energy (eV) =    4.7972
 Total energy for state  3:                 -1528.77787643 au
    Multiplicity: Triplet
    Trans. Mom.:  0.0000 X   0.0000 Y   0.0000 Z
    Strength   :     0.0000000000
    D(   44) --> V(    2) amplitude =  0.9808

 Excited state   4: excitation energy (eV) =    5.2293
 Total energy for state  4:                 -1528.76199951 au
    Multiplicity: Triplet
    Trans. Mom.:  0.0000 X   0.0000 Y   0.0000 Z
    Strength   :     0.0000000000
    D(   43) --> V(    1) amplitude =  0.3178
    D(   43) --> V(    2) amplitude = -0.9154

 Excited state   5: excitation energy (eV) =    5.2312
 Total energy for state  5:                 -1528.76192960 au
    Multiplicity: Singlet
    Trans. Mom.: -0.4738 X  -0.0206 Y   0.4575 Z
    Strength   :     0.0556471204
    D(   43) --> V(    3) amplitude = -0.2900
    D(   44) --> V(    1) amplitude =  0.9427

 Excited state   6: excitation energy (eV) =    5.3259
 Total energy for state  6:                 -1528.75844895 au
    Multiplicity: Singlet
    Trans. Mom.: -0.0140 X  -0.0022 Y   0.0154 Z
    Strength   :     0.0000573960
    D(   44) --> V(    2) amplitude =  0.9910

 Excited state   7: excitation energy (eV) =    5.6008
 Total energy for state  7:                 -1528.74834503 au
    Multiplicity: Singlet
    Trans. Mom.:  0.0113 X   0.0695 Y  -0.0092 Z
    Strength   :     0.0006911838
    D(   43) --> V(    1) amplitude =  0.9907

 Excited state   8: excitation energy (eV) =    5.7580
 Total energy for state  8:                 -1528.74257041 au
    Multiplicity: Singlet
    Trans. Mom.:  0.0678 X   0.6672 Y  -0.1177 Z
    Strength   :     0.0653990770
    D(   42) --> V(    2) amplitude = -0.2901
    D(   44) --> V(    3) amplitude =  0.6931
    D(   44) --> V(    4) amplitude = -0.5904

 ---------------------------------------------------

                    Orbital Energies (a.u.)
 --------------------------------------------------------------

 Alpha MOs
 -- Occupied --
-66.1378 -66.1376 -66.1146 -66.1145 -66.1022 -19.1288  -5.2968  -5.2967
 -5.2784  -5.2784  -5.2677  -3.6561  -3.6559  -3.6545  -3.6543  -3.6537
 -3.6536  -3.6364  -3.6363  -3.6358  -3.6358  -3.6358  -3.6358  -3.6256
 -3.6249  -3.6248  -0.9943  -0.5871  -0.5601  -0.5427  -0.5298  -0.4463
 -0.4120  -0.4118  -0.4033  -0.3657  -0.3652  -0.3594  -0.3585  -0.3549
 -0.3125  -0.2887  -0.2805  -0.2635

          Ground-State Mulliken Net Atomic Charges

     Atom                 Charge (a.u.)
  ----------------------------------------
      1 Si                    0.363769
      2 Si                    0.112760
      3 Si                    0.363090
      4 Si                   -0.066801
      5 Si                    0.112132
      6 H                    -0.038743
      7 H                    -0.039429
      8 H                    -0.039330
      9 H                    -0.039433
     10 H                    -0.038299
     11 H                    -0.039753
     12 O                    -0.431235
     13 H                    -0.054798
     14 H                    -0.054701
     15 H                    -0.055109
     16 H                    -0.054119
  ----------------------------------------
  Sum of atomic charges =     0.000000

                    Cartesian Multipole Moments
 -----------------------------------------------------------------
    Charge (ESU x 10^10)
                -0.0000
    Dipole Moment (Debye)
         X      -0.0252      Y       0.9574      Z      -0.0152
       Tot       0.9578
    Quadrupole Moments (Debye-Ang)
        XX     -78.0045     XY       0.2268     YY     -83.6363
        XZ      -1.3164     YZ       0.0612     ZZ     -78.0620

 Total job time:  270.71s(wall), 1823.96s(cpu)
        *  Thank you very much for using Q-Chem.  Have a nice day.  *
